<?xml version="1.0" encoding="UTF-8"?>

<!-- generated on Thu Jun 25 08:47:25 2020 by Eclipse SUMO Version 1.6.0
<configuration xmlns:xsi="http://www.w3.org/2001/XMLSchema-instance" xsi:noNamespaceSchemaLocation="http://sumo.dlr.de/xsd/sumoConfiguration.xsd">

    <input>
        <net-file value="sumo/light.net.xml"/>
        <route-files value="sumo/light.rou.xml"/>
    </input>

    <output>
        <tripinfo-output value="sumo/tripinfo.xml"/>
    </output>

    <time>
        <begin value="0"/>
        <end value="2000"/>
        <step-length value="0.1"/>
    </time>

    <traci_server>
        <remote-port value="40073"/>
    </traci_server>

    <gui_only>
        <tracker-interval value="0.1"/>
    </gui_only>

</configuration>
-->

<tripinfos xmlns:xsi="http://www.w3.org/2001/XMLSchema-instance" xsi:noNamespaceSchemaLocation="http://sumo.dlr.de/xsd/tripinfo_file.xsd">
    <tripinfo id="0" depart="0.00" departLane="c_s_0" departPos="5.10" departSpeed="0.00" departDelay="0.00" arrival="10.30" arrivalLane="c_n_0" arrivalPos="26.40" arrivalSpeed="14.64" duration="10.30" routeLength="84.90" waitingTime="0.00" waitingCount="0" stopTime="0.00" timeLoss="4.46" rerouteNo="0" devices="tripinfo_0" vType="DEFAULT_VEHTYPE" speedFactor="1.06" vaporized=""/>
    <tripinfo id="2" depart="2.00" departLane="-c_n_0" departPos="5.10" departSpeed="0.00" departDelay="0.00" arrival="12.20" arrivalLane="-c_s_0" arrivalPos="36.40" arrivalSpeed="12.94" duration="10.20" routeLength="84.90" waitingTime="0.00" waitingCount="0" stopTime="0.00" timeLoss="3.64" rerouteNo="0" devices="tripinfo_2" vType="DEFAULT_VEHTYPE" speedFactor="0.94" vaporized=""/>
    <tripinfo id="4" depart="4.60" departLane="-c_n_0" departPos="5.10" departSpeed="0.00" departDelay="0.60" arrival="12.40" arrivalLane="c_e_2" arrivalPos="11.40" arrivalSpeed="12.32" duration="7.80" routeLength="57.21" waitingTime="0.00" waitingCount="0" stopTime="0.00" timeLoss="3.14" rerouteNo="0" devices="tripinfo_4" vType="DEFAULT_VEHTYPE" speedFactor="1.01" vaporized=""/>
    <tripinfo id="5" depart="5.00" departLane="c_s_0" departPos="5.10" departSpeed="0.00" departDelay="0.00" arrival="15.60" arrivalLane="c_n_0" arrivalPos="26.40" arrivalSpeed="15.00" duration="10.60" routeLength="84.90" waitingTime="0.00" waitingCount="0" stopTime="0.00" timeLoss="4.89" rerouteNo="0" devices="tripinfo_5" vType="DEFAULT_VEHTYPE" speedFactor="1.08" vaporized=""/>
    <tripinfo id="6" depart="7.60" departLane="c_s_0" departPos="5.10" departSpeed="0.00" departDelay="1.60" arrival="16.20" arrivalLane="c_e_0" arrivalPos="11.40" arrivalSpeed="9.18" duration="8.60" routeLength="51.73" waitingTime="0.00" waitingCount="0" stopTime="0.00" timeLoss="4.24" rerouteNo="0" devices="tripinfo_6" vType="DEFAULT_VEHTYPE" speedFactor="1.03" vaporized=""/>
    <tripinfo id="10" depart="10.00" departLane="-c_n_0" departPos="5.10" departSpeed="0.00" departDelay="0.00" arrival="17.50" arrivalLane="-w_c_0" arrivalPos="11.40" arrivalSpeed="9.45" duration="7.50" routeLength="41.73" waitingTime="0.00" waitingCount="0" stopTime="0.00" timeLoss="3.91" rerouteNo="0" devices="tripinfo_10" vType="DEFAULT_VEHTYPE" speedFactor="1.05" vaporized=""/>
    <tripinfo id="14" depart="14.00" departLane="c_s_0" departPos="5.10" departSpeed="0.00" departDelay="0.00" arrival="22.50" arrivalLane="c_e_0" arrivalPos="11.40" arrivalSpeed="9.75" duration="8.50" routeLength="51.73" waitingTime="0.00" waitingCount="0" stopTime="0.00" timeLoss="4.36" rerouteNo="0" devices="tripinfo_14" vType="DEFAULT_VEHTYPE" speedFactor="1.09" vaporized=""/>
    <tripinfo id="11" depart="12.70" departLane="-c_n_0" departPos="5.10" departSpeed="0.00" departDelay="1.70" arrival="22.60" arrivalLane="-c_s_2" arrivalPos="36.40" arrivalSpeed="12.27" duration="9.90" routeLength="84.90" waitingTime="0.00" waitingCount="0" stopTime="0.00" timeLoss="2.96" rerouteNo="0" devices="tripinfo_11" vType="DEFAULT_VEHTYPE" speedFactor="0.89" vaporized=""/>
    <tripinfo id="15" depart="15.00" departLane="-c_n_0" departPos="5.10" departSpeed="0.00" departDelay="0.00" arrival="24.40" arrivalLane="-c_s_2" arrivalPos="36.40" arrivalSpeed="14.16" duration="9.40" routeLength="84.90" waitingTime="0.00" waitingCount="0" stopTime="0.00" timeLoss="3.41" rerouteNo="0" devices="tripinfo_15" vType="DEFAULT_VEHTYPE" speedFactor="1.03" vaporized=""/>
    <tripinfo id="16" depart="16.60" departLane="c_s_0" departPos="5.10" departSpeed="0.00" departDelay="0.60" arrival="26.80" arrivalLane="c_n_0" arrivalPos="26.40" arrivalSpeed="14.51" duration="10.20" routeLength="84.90" waitingTime="0.00" waitingCount="0" stopTime="0.00" timeLoss="4.37" rerouteNo="0" devices="tripinfo_16" vType="DEFAULT_VEHTYPE" speedFactor="1.05" vaporized=""/>
    <tripinfo id="19" depart="19.00" departLane="-c_n_0" departPos="5.10" departSpeed="0.00" departDelay="0.00" arrival="28.50" arrivalLane="-c_s_2" arrivalPos="36.40" arrivalSpeed="13.65" duration="9.50" routeLength="84.90" waitingTime="0.00" waitingCount="0" stopTime="0.00" timeLoss="3.30" rerouteNo="0" devices="tripinfo_19" vType="DEFAULT_VEHTYPE" speedFactor="0.99" vaporized=""/>
    <tripinfo id="17" depart="19.20" departLane="c_s_0" departPos="5.10" departSpeed="0.00" departDelay="2.20" arrival="28.60" arrivalLane="c_n_0" arrivalPos="26.40" arrivalSpeed="15.56" duration="9.40" routeLength="84.90" waitingTime="0.00" waitingCount="0" stopTime="0.00" timeLoss="3.93" rerouteNo="0" devices="tripinfo_17" vType="DEFAULT_VEHTYPE" speedFactor="1.12" vaporized=""/>
    <tripinfo id="7" depart="7.00" departLane="w_c_0" departPos="5.10" departSpeed="0.00" departDelay="0.00" arrival="31.00" arrivalLane="-c_s_0" arrivalPos="36.40" arrivalSpeed="11.54" duration="24.00" routeLength="51.73" waitingTime="14.30" waitingCount="1" stopTime="0.00" timeLoss="18.58" rerouteNo="0" devices="tripinfo_7" vType="DEFAULT_VEHTYPE" speedFactor="0.83" vaporized=""/>
    <tripinfo id="22" depart="25.30" departLane="w_c_0" departPos="5.10" departSpeed="0.00" departDelay="3.30" arrival="32.90" arrivalLane="-c_s_0" arrivalPos="36.40" arrivalSpeed="13.03" duration="7.60" routeLength="51.73" waitingTime="0.00" waitingCount="0" stopTime="0.00" timeLoss="2.88" rerouteNo="0" devices="tripinfo_22" vType="DEFAULT_VEHTYPE" speedFactor="0.94" vaporized=""/>
    <tripinfo id="23" depart="27.90" departLane="w_c_0" departPos="5.10" departSpeed="0.00" departDelay="4.90" arrival="35.60" arrivalLane="-c_s_0" arrivalPos="36.40" arrivalSpeed="12.99" duration="7.70" routeLength="51.73" waitingTime="0.00" waitingCount="0" stopTime="0.00" timeLoss="2.92" rerouteNo="0" devices="tripinfo_23" vType="DEFAULT_VEHTYPE" speedFactor="0.94" vaporized=""/>
    <tripinfo id="25" depart="30.60" departLane="w_c_0" departPos="5.10" departSpeed="0.00" departDelay="5.60" arrival="37.80" arrivalLane="-c_s_0" arrivalPos="36.40" arrivalSpeed="14.27" duration="7.20" routeLength="51.73" waitingTime="0.00" waitingCount="0" stopTime="0.00" timeLoss="3.29" rerouteNo="0" devices="tripinfo_25" vType="DEFAULT_VEHTYPE" speedFactor="1.16" vaporized=""/>
    <tripinfo id="12" depart="12.00" departLane="-c_e_0" departPos="5.10" departSpeed="0.00" departDelay="0.00" arrival="39.50" arrivalLane="-c_s_2" arrivalPos="36.40" arrivalSpeed="11.98" duration="27.50" routeLength="67.21" waitingTime="12.10" waitingCount="3" stopTime="0.00" timeLoss="21.66" rerouteNo="0" devices="tripinfo_12" vType="DEFAULT_VEHTYPE" speedFactor="0.94" vaporized=""/>
    <tripinfo id="26" depart="26.00" departLane="-c_n_0" departPos="5.10" departSpeed="0.00" departDelay="0.00" arrival="40.10" arrivalLane="-c_s_1" arrivalPos="36.40" arrivalSpeed="14.09" duration="14.10" routeLength="84.90" waitingTime="0.20" waitingCount="1" stopTime="0.00" timeLoss="8.07" rerouteNo="0" devices="tripinfo_26" vType="DEFAULT_VEHTYPE" speedFactor="1.02" vaporized=""/>
    <tripinfo id="30" depart="33.20" departLane="w_c_0" departPos="5.10" departSpeed="0.00" departDelay="3.20" arrival="40.60" arrivalLane="c_e_2" arrivalPos="11.40" arrivalSpeed="12.14" duration="7.40" routeLength="44.90" waitingTime="0.00" waitingCount="0" stopTime="0.00" timeLoss="4.06" rerouteNo="0" devices="tripinfo_30" vType="DEFAULT_VEHTYPE" speedFactor="0.98" vaporized=""/>
    <tripinfo id="13" depart="13.00" departLane="-c_e_0" departPos="5.10" departSpeed="0.00" departDelay="0.00" arrival="40.80" arrivalLane="-c_s_2" arrivalPos="36.40" arrivalSpeed="11.84" duration="27.80" routeLength="67.21" waitingTime="12.50" waitingCount="3" stopTime="0.00" timeLoss="21.46" rerouteNo="0" devices="tripinfo_13" vType="DEFAULT_VEHTYPE" speedFactor="0.86" vaporized=""/>
    <tripinfo id="34" depart="34.00" departLane="c_s_0" departPos="5.10" departSpeed="0.00" departDelay="0.00" arrival="44.10" arrivalLane="c_n_1" arrivalPos="26.40" arrivalSpeed="12.10" duration="10.10" routeLength="84.90" waitingTime="0.00" waitingCount="0" stopTime="0.00" timeLoss="3.07" rerouteNo="0" devices="tripinfo_34" vType="DEFAULT_VEHTYPE" speedFactor="0.87" vaporized=""/>
    <tripinfo id="38" depart="38.00" departLane="-c_n_0" departPos="5.10" departSpeed="0.00" departDelay="0.00" arrival="47.10" arrivalLane="-c_s_2" arrivalPos="36.40" arrivalSpeed="15.65" duration="9.10" routeLength="84.90" waitingTime="0.00" waitingCount="0" stopTime="0.00" timeLoss="3.66" rerouteNo="0" devices="tripinfo_38" vType="DEFAULT_VEHTYPE" speedFactor="1.13" vaporized=""/>
    <tripinfo id="37" depart="37.00" departLane="c_s_0" departPos="5.10" departSpeed="0.00" departDelay="0.00" arrival="48.20" arrivalLane="c_n_1" arrivalPos="26.40" arrivalSpeed="13.11" duration="11.20" routeLength="84.90" waitingTime="0.00" waitingCount="0" stopTime="0.00" timeLoss="4.77" rerouteNo="0" devices="tripinfo_37" vType="DEFAULT_VEHTYPE" speedFactor="0.95" vaporized=""/>
    <tripinfo id="43" depart="43.00" departLane="-c_n_0" departPos="5.10" departSpeed="0.00" departDelay="0.00" arrival="50.20" arrivalLane="-w_c_0" arrivalPos="11.40" arrivalSpeed="9.93" duration="7.20" routeLength="41.73" waitingTime="0.00" waitingCount="0" stopTime="0.00" timeLoss="3.87" rerouteNo="0" devices="tripinfo_43" vType="DEFAULT_VEHTYPE" speedFactor="1.15" vaporized=""/>
    <tripinfo id="44" depart="44.00" departLane="w_c_0" departPos="5.10" departSpeed="0.00" departDelay="0.00" arrival="50.50" arrivalLane="c_e_2" arrivalPos="11.40" arrivalSpeed="13.44" duration="6.50" routeLength="44.90" waitingTime="0.00" waitingCount="0" stopTime="0.00" timeLoss="3.28" rerouteNo="0" devices="tripinfo_44" vType="DEFAULT_VEHTYPE" speedFactor="1.01" vaporized=""/>
    <tripinfo id="46" depart="46.00" departLane="w_c_0" departPos="5.10" departSpeed="0.00" departDelay="0.00" arrival="52.90" arrivalLane="c_e_2" arrivalPos="11.40" arrivalSpeed="13.23" duration="6.90" routeLength="44.90" waitingTime="0.00" waitingCount="0" stopTime="0.00" timeLoss="4.07" rerouteNo="0" devices="tripinfo_46" vType="DEFAULT_VEHTYPE" speedFactor="1.17" vaporized=""/>
    <tripinfo id="36" depart="36.00" departLane="-c_e_0" departPos="5.10" departSpeed="0.00" departDelay="0.00" arrival="54.80" arrivalLane="-w_c_0" arrivalPos="11.40" arrivalSpeed="12.28" duration="18.80" routeLength="44.90" waitingTime="10.00" waitingCount="1" stopTime="0.00" timeLoss="15.23" rerouteNo="0" devices="tripinfo_36" vType="DEFAULT_VEHTYPE" speedFactor="0.92" vaporized=""/>
    <tripinfo id="49" depart="49.80" departLane="-c_e_0" departPos="5.10" departSpeed="0.00" departDelay="0.80" arrival="58.10" arrivalLane="-c_s_2" arrivalPos="36.40" arrivalSpeed="13.77" duration="8.30" routeLength="67.21" waitingTime="0.00" waitingCount="0" stopTime="0.00" timeLoss="2.80" rerouteNo="0" devices="tripinfo_49" vType="DEFAULT_VEHTYPE" speedFactor="0.99" vaporized=""/>
    <tripinfo id="21" depart="22.00" departLane="c_s_0" departPos="5.10" departSpeed="0.00" departDelay="1.00" arrival="135.50" arrivalLane="c_e_0" arrivalPos="11.40" arrivalSpeed="8.52" duration="113.50" routeLength="51.73" waitingTime="102.30" waitingCount="1" stopTime="0.00" timeLoss="108.36" rerouteNo="0" devices="tripinfo_21" vType="DEFAULT_VEHTYPE" speedFactor="0.88" vaporized=""/>
    <tripinfo id="39" depart="39.00" departLane="-c_n_0" departPos="5.10" departSpeed="0.00" departDelay="0.00" arrival="137.00" arrivalLane="c_e_2" arrivalPos="11.40" arrivalSpeed="11.65" duration="98.00" routeLength="57.21" waitingTime="86.40" waitingCount="2" stopTime="0.00" timeLoss="92.88" rerouteNo="0" devices="tripinfo_39" vType="DEFAULT_VEHTYPE" speedFactor="0.93" vaporized=""/>
    <tripinfo id="28" depart="28.00" departLane="c_s_0" departPos="5.10" departSpeed="0.00" departDelay="0.00" arrival="137.20" arrivalLane="c_e_0" arrivalPos="11.40" arrivalSpeed="9.05" duration="109.20" routeLength="51.73" waitingTime="94.60" waitingCount="1" stopTime="0.00" timeLoss="104.76" rerouteNo="0" devices="tripinfo_28" vType="DEFAULT_VEHTYPE" speedFactor="1.01" vaporized=""/>
    <tripinfo id="40" depart="40.00" departLane="-c_n_0" departPos="5.10" departSpeed="0.00" departDelay="0.00" arrival="140.00" arrivalLane="-c_s_2" arrivalPos="36.40" arrivalSpeed="16.32" duration="100.00" routeLength="84.90" waitingTime="84.10" waitingCount="3" stopTime="0.00" timeLoss="94.76" rerouteNo="0" devices="tripinfo_40" vType="DEFAULT_VEHTYPE" speedFactor="1.18" vaporized=""/>
    <tripinfo id="20" depart="21.90" departLane="c_s_0" departPos="5.10" departSpeed="0.00" departDelay="1.90" arrival="328.90" arrivalLane="-w_c_0" arrivalPos="11.40" arrivalSpeed="12.81" duration="307.00" routeLength="42.70" waitingTime="300.10" waitingCount="1" stopTime="0.00" timeLoss="304.14" rerouteNo="0" devices="tripinfo_20" vType="DEFAULT_VEHTYPE" speedFactor="0.93" vaporized=""/>
    <tripinfo id="31" depart="31.00" departLane="c_s_0" departPos="5.10" departSpeed="0.00" departDelay="0.00" arrival="632.20" arrivalLane="-w_c_0" arrivalPos="11.40" arrivalSpeed="12.28" duration="601.20" routeLength="42.70" waitingTime="588.90" waitingCount="2" stopTime="0.00" timeLoss="598.23" rerouteNo="0" devices="tripinfo_31" vType="DEFAULT_VEHTYPE" speedFactor="0.89" vaporized=""/>
    <tripinfo id="33" depart="33.00" departLane="c_s_0" departPos="5.10" departSpeed="0.00" departDelay="0.00" arrival="935.50" arrivalLane="-w_c_0" arrivalPos="11.40" arrivalSpeed="11.39" duration="902.50" routeLength="42.70" waitingTime="884.20" waitingCount="3" stopTime="0.00" timeLoss="899.21" rerouteNo="0" devices="tripinfo_33" vType="DEFAULT_VEHTYPE" speedFactor="0.83" vaporized=""/>
</tripinfos>
