<?xml version="1.0" encoding="UTF-8"?>

<!-- generated on Sun Jun 21 23:03:11 2020 by Eclipse SUMO Version 1.6.0
<configuration xmlns:xsi="http://www.w3.org/2001/XMLSchema-instance" xsi:noNamespaceSchemaLocation="http://sumo.dlr.de/xsd/sumoConfiguration.xsd">

    <input>
        <net-file value="sumo/light.net.xml"/>
        <route-files value="sumo/light.rou.xml"/>
    </input>

    <output>
        <tripinfo-output value="sumo/tripinfo.xml"/>
    </output>

    <time>
        <begin value="0"/>
        <end value="2000"/>
        <step-length value="0.1"/>
    </time>

    <traci_server>
        <remote-port value="39713"/>
    </traci_server>

    <gui_only>
        <tracker-interval value="0.1"/>
    </gui_only>

</configuration>
-->

<tripinfos xmlns:xsi="http://www.w3.org/2001/XMLSchema-instance" xsi:noNamespaceSchemaLocation="http://sumo.dlr.de/xsd/tripinfo_file.xsd">
    <tripinfo id="0" depart="0.00" departLane="c_s_0" departPos="5.10" departSpeed="0.00" departDelay="0.00" arrival="10.30" arrivalLane="c_n_0" arrivalPos="26.40" arrivalSpeed="14.64" duration="10.30" routeLength="84.90" waitingTime="0.00" waitingCount="0" stopTime="0.00" timeLoss="4.46" rerouteNo="0" devices="tripinfo_0" vType="DEFAULT_VEHTYPE" speedFactor="1.06" vaporized=""/>
    <tripinfo id="2" depart="2.00" departLane="-c_n_0" departPos="5.10" departSpeed="0.00" departDelay="0.00" arrival="11.80" arrivalLane="-c_s_0" arrivalPos="36.40" arrivalSpeed="12.95" duration="9.80" routeLength="84.90" waitingTime="0.00" waitingCount="0" stopTime="0.00" timeLoss="3.24" rerouteNo="0" devices="tripinfo_2" vType="DEFAULT_VEHTYPE" speedFactor="0.94" vaporized=""/>
    <tripinfo id="4" depart="4.60" departLane="-c_n_0" departPos="5.10" departSpeed="0.00" departDelay="0.60" arrival="12.40" arrivalLane="c_e_2" arrivalPos="11.40" arrivalSpeed="12.32" duration="7.80" routeLength="57.21" waitingTime="0.00" waitingCount="0" stopTime="0.00" timeLoss="3.14" rerouteNo="0" devices="tripinfo_4" vType="DEFAULT_VEHTYPE" speedFactor="1.01" vaporized=""/>
    <tripinfo id="7" depart="7.00" departLane="w_c_0" departPos="5.10" departSpeed="0.00" departDelay="0.00" arrival="14.90" arrivalLane="-c_s_0" arrivalPos="36.40" arrivalSpeed="11.47" duration="7.90" routeLength="51.73" waitingTime="0.00" waitingCount="0" stopTime="0.00" timeLoss="2.49" rerouteNo="0" devices="tripinfo_7" vType="DEFAULT_VEHTYPE" speedFactor="0.83" vaporized=""/>
    <tripinfo id="5" depart="5.00" departLane="c_s_0" departPos="5.10" departSpeed="0.00" departDelay="0.00" arrival="15.60" arrivalLane="c_n_0" arrivalPos="26.40" arrivalSpeed="15.00" duration="10.60" routeLength="84.90" waitingTime="0.00" waitingCount="0" stopTime="0.00" timeLoss="4.89" rerouteNo="0" devices="tripinfo_5" vType="DEFAULT_VEHTYPE" speedFactor="1.08" vaporized=""/>
    <tripinfo id="6" depart="7.60" departLane="c_s_0" departPos="5.10" departSpeed="0.00" departDelay="1.60" arrival="16.20" arrivalLane="c_e_0" arrivalPos="11.40" arrivalSpeed="9.18" duration="8.60" routeLength="51.73" waitingTime="0.00" waitingCount="0" stopTime="0.00" timeLoss="4.24" rerouteNo="0" devices="tripinfo_6" vType="DEFAULT_VEHTYPE" speedFactor="1.03" vaporized=""/>
    <tripinfo id="10" depart="10.00" departLane="-c_n_0" departPos="5.10" departSpeed="0.00" departDelay="0.00" arrival="17.40" arrivalLane="-w_c_0" arrivalPos="11.40" arrivalSpeed="9.45" duration="7.40" routeLength="41.73" waitingTime="0.00" waitingCount="0" stopTime="0.00" timeLoss="3.81" rerouteNo="0" devices="tripinfo_10" vType="DEFAULT_VEHTYPE" speedFactor="1.05" vaporized=""/>
    <tripinfo id="12" depart="12.00" departLane="-c_e_0" departPos="5.10" departSpeed="0.00" departDelay="0.00" arrival="20.40" arrivalLane="-c_s_2" arrivalPos="36.40" arrivalSpeed="12.95" duration="8.40" routeLength="67.21" waitingTime="0.00" waitingCount="0" stopTime="0.00" timeLoss="2.56" rerouteNo="0" devices="tripinfo_12" vType="DEFAULT_VEHTYPE" speedFactor="0.94" vaporized=""/>
    <tripinfo id="11" depart="12.70" departLane="-c_n_0" departPos="5.10" departSpeed="0.00" departDelay="1.70" arrival="22.50" arrivalLane="-c_s_0" arrivalPos="36.40" arrivalSpeed="12.22" duration="9.80" routeLength="84.90" waitingTime="0.00" waitingCount="0" stopTime="0.00" timeLoss="2.89" rerouteNo="0" devices="tripinfo_11" vType="DEFAULT_VEHTYPE" speedFactor="0.89" vaporized=""/>
    <tripinfo id="14" depart="14.00" departLane="c_s_0" departPos="5.10" departSpeed="0.00" departDelay="0.00" arrival="22.50" arrivalLane="c_e_0" arrivalPos="11.40" arrivalSpeed="9.75" duration="8.50" routeLength="51.73" waitingTime="0.00" waitingCount="0" stopTime="0.00" timeLoss="4.36" rerouteNo="0" devices="tripinfo_14" vType="DEFAULT_VEHTYPE" speedFactor="1.09" vaporized=""/>
    <tripinfo id="13" depart="13.00" departLane="-c_e_0" departPos="5.10" departSpeed="0.00" departDelay="0.00" arrival="23.00" arrivalLane="-c_s_2" arrivalPos="36.40" arrivalSpeed="11.80" duration="10.00" routeLength="67.21" waitingTime="0.70" waitingCount="1" stopTime="0.00" timeLoss="3.61" rerouteNo="0" devices="tripinfo_13" vType="DEFAULT_VEHTYPE" speedFactor="0.86" vaporized=""/>
    <tripinfo id="15" depart="15.30" departLane="-c_n_0" departPos="5.10" departSpeed="0.00" departDelay="0.30" arrival="24.80" arrivalLane="-c_s_0" arrivalPos="36.40" arrivalSpeed="14.15" duration="9.50" routeLength="84.90" waitingTime="0.00" waitingCount="0" stopTime="0.00" timeLoss="3.46" rerouteNo="0" devices="tripinfo_15" vType="DEFAULT_VEHTYPE" speedFactor="1.03" vaporized=""/>
    <tripinfo id="16" depart="16.60" departLane="c_s_0" departPos="5.10" departSpeed="0.00" departDelay="0.60" arrival="26.80" arrivalLane="c_n_0" arrivalPos="26.40" arrivalSpeed="14.51" duration="10.20" routeLength="84.90" waitingTime="0.00" waitingCount="0" stopTime="0.00" timeLoss="4.37" rerouteNo="0" devices="tripinfo_16" vType="DEFAULT_VEHTYPE" speedFactor="1.05" vaporized=""/>
    <tripinfo id="19" depart="19.00" departLane="-c_n_0" departPos="5.10" departSpeed="0.00" departDelay="0.00" arrival="28.50" arrivalLane="-c_s_0" arrivalPos="36.40" arrivalSpeed="13.69" duration="9.50" routeLength="84.90" waitingTime="0.00" waitingCount="0" stopTime="0.00" timeLoss="3.28" rerouteNo="0" devices="tripinfo_19" vType="DEFAULT_VEHTYPE" speedFactor="0.99" vaporized=""/>
    <tripinfo id="17" depart="19.20" departLane="c_s_0" departPos="5.10" departSpeed="0.00" departDelay="2.20" arrival="29.60" arrivalLane="c_n_0" arrivalPos="26.40" arrivalSpeed="15.56" duration="10.40" routeLength="84.90" waitingTime="0.00" waitingCount="0" stopTime="0.00" timeLoss="4.89" rerouteNo="0" devices="tripinfo_17" vType="DEFAULT_VEHTYPE" speedFactor="1.12" vaporized=""/>
    <tripinfo id="21" depart="22.00" departLane="c_s_0" departPos="5.10" departSpeed="0.00" departDelay="1.00" arrival="31.20" arrivalLane="c_e_0" arrivalPos="11.40" arrivalSpeed="8.54" duration="9.20" routeLength="51.73" waitingTime="0.00" waitingCount="0" stopTime="0.00" timeLoss="4.08" rerouteNo="0" devices="tripinfo_21" vType="DEFAULT_VEHTYPE" speedFactor="0.88" vaporized=""/>
    <tripinfo id="22" depart="22.00" departLane="w_c_0" departPos="5.10" departSpeed="0.00" departDelay="0.00" arrival="32.40" arrivalLane="-c_s_0" arrivalPos="36.40" arrivalSpeed="12.99" duration="10.40" routeLength="51.73" waitingTime="0.90" waitingCount="1" stopTime="0.00" timeLoss="5.64" rerouteNo="0" devices="tripinfo_22" vType="DEFAULT_VEHTYPE" speedFactor="0.94" vaporized=""/>
    <tripinfo id="26" depart="26.00" departLane="-c_n_0" departPos="5.10" departSpeed="0.00" departDelay="0.00" arrival="35.40" arrivalLane="-c_s_0" arrivalPos="36.40" arrivalSpeed="14.10" duration="9.40" routeLength="84.90" waitingTime="0.00" waitingCount="0" stopTime="0.00" timeLoss="3.35" rerouteNo="0" devices="tripinfo_26" vType="DEFAULT_VEHTYPE" speedFactor="1.02" vaporized=""/>
    <tripinfo id="28" depart="28.00" departLane="c_s_0" departPos="5.10" departSpeed="0.00" departDelay="0.00" arrival="36.80" arrivalLane="c_e_0" arrivalPos="11.40" arrivalSpeed="9.30" duration="8.80" routeLength="51.73" waitingTime="0.00" waitingCount="0" stopTime="0.00" timeLoss="4.33" rerouteNo="0" devices="tripinfo_28" vType="DEFAULT_VEHTYPE" speedFactor="1.01" vaporized=""/>
    <tripinfo id="20" depart="21.90" departLane="c_s_0" departPos="5.10" departSpeed="0.00" departDelay="1.90" arrival="37.30" arrivalLane="-w_c_2" arrivalPos="11.40" arrivalSpeed="10.29" duration="15.40" routeLength="67.21" waitingTime="3.00" waitingCount="1" stopTime="0.00" timeLoss="9.54" rerouteNo="0" devices="tripinfo_20" vType="DEFAULT_VEHTYPE" speedFactor="0.93" vaporized=""/>
    <tripinfo id="23" depart="26.70" departLane="w_c_0" departPos="5.10" departSpeed="0.00" departDelay="3.70" arrival="39.40" arrivalLane="-c_s_0" arrivalPos="36.40" arrivalSpeed="12.97" duration="12.70" routeLength="51.73" waitingTime="3.10" waitingCount="1" stopTime="0.00" timeLoss="7.95" rerouteNo="0" devices="tripinfo_23" vType="DEFAULT_VEHTYPE" speedFactor="0.94" vaporized=""/>
    <tripinfo id="31" depart="31.00" departLane="c_s_0" departPos="5.10" departSpeed="0.00" departDelay="0.00" arrival="40.60" arrivalLane="-w_c_2" arrivalPos="11.40" arrivalSpeed="11.43" duration="9.60" routeLength="67.21" waitingTime="0.00" waitingCount="0" stopTime="0.00" timeLoss="3.42" rerouteNo="0" devices="tripinfo_31" vType="DEFAULT_VEHTYPE" speedFactor="0.89" vaporized=""/>
    <tripinfo id="25" depart="33.80" departLane="w_c_0" departPos="5.10" departSpeed="0.00" departDelay="8.80" arrival="40.80" arrivalLane="-c_s_0" arrivalPos="36.40" arrivalSpeed="13.95" duration="7.00" routeLength="51.73" waitingTime="0.00" waitingCount="0" stopTime="0.00" timeLoss="3.13" rerouteNo="0" devices="tripinfo_25" vType="DEFAULT_VEHTYPE" speedFactor="1.16" vaporized=""/>
    <tripinfo id="36" depart="36.00" departLane="-c_e_0" departPos="5.10" departSpeed="0.00" departDelay="0.00" arrival="42.50" arrivalLane="-w_c_1" arrivalPos="11.40" arrivalSpeed="12.69" duration="6.50" routeLength="44.90" waitingTime="0.00" waitingCount="0" stopTime="0.00" timeLoss="2.98" rerouteNo="0" devices="tripinfo_36" vType="DEFAULT_VEHTYPE" speedFactor="0.92" vaporized=""/>
    <tripinfo id="30" depart="36.30" departLane="w_c_0" departPos="5.10" departSpeed="0.00" departDelay="6.30" arrival="42.90" arrivalLane="c_e_0" arrivalPos="11.40" arrivalSpeed="13.16" duration="6.60" routeLength="44.90" waitingTime="0.00" waitingCount="0" stopTime="0.00" timeLoss="3.22" rerouteNo="0" devices="tripinfo_30" vType="DEFAULT_VEHTYPE" speedFactor="0.98" vaporized=""/>
    <tripinfo id="38" depart="38.00" departLane="-c_n_0" departPos="5.10" departSpeed="0.00" departDelay="0.00" arrival="47.30" arrivalLane="-c_s_0" arrivalPos="36.40" arrivalSpeed="15.60" duration="9.30" routeLength="84.90" waitingTime="0.00" waitingCount="0" stopTime="0.00" timeLoss="3.90" rerouteNo="0" devices="tripinfo_38" vType="DEFAULT_VEHTYPE" speedFactor="1.13" vaporized=""/>
    <tripinfo id="37" depart="37.00" departLane="c_s_0" departPos="5.10" departSpeed="0.00" departDelay="0.00" arrival="49.00" arrivalLane="c_n_1" arrivalPos="26.40" arrivalSpeed="13.09" duration="12.00" routeLength="84.90" waitingTime="0.00" waitingCount="0" stopTime="0.00" timeLoss="5.52" rerouteNo="0" devices="tripinfo_37" vType="DEFAULT_VEHTYPE" speedFactor="0.95" vaporized=""/>
    <tripinfo id="34" depart="34.00" departLane="c_s_0" departPos="5.10" departSpeed="0.00" departDelay="0.00" arrival="49.30" arrivalLane="c_n_0" arrivalPos="26.40" arrivalSpeed="12.00" duration="15.30" routeLength="84.90" waitingTime="1.20" waitingCount="1" stopTime="0.00" timeLoss="8.23" rerouteNo="0" devices="tripinfo_34" vType="DEFAULT_VEHTYPE" speedFactor="0.87" vaporized=""/>
    <tripinfo id="40" depart="40.70" departLane="-c_n_0" departPos="5.10" departSpeed="0.00" departDelay="0.70" arrival="49.90" arrivalLane="-c_s_0" arrivalPos="36.40" arrivalSpeed="16.27" duration="9.20" routeLength="84.90" waitingTime="0.00" waitingCount="0" stopTime="0.00" timeLoss="3.95" rerouteNo="0" devices="tripinfo_40" vType="DEFAULT_VEHTYPE" speedFactor="1.18" vaporized=""/>
    <tripinfo id="43" depart="43.30" departLane="-c_n_0" departPos="5.10" departSpeed="0.00" departDelay="0.30" arrival="50.30" arrivalLane="-w_c_0" arrivalPos="11.40" arrivalSpeed="9.92" duration="7.00" routeLength="41.73" waitingTime="0.00" waitingCount="0" stopTime="0.00" timeLoss="3.73" rerouteNo="0" devices="tripinfo_43" vType="DEFAULT_VEHTYPE" speedFactor="1.15" vaporized=""/>
    <tripinfo id="39" depart="40.60" departLane="-c_n_0" departPos="5.10" departSpeed="0.00" departDelay="1.60" arrival="50.80" arrivalLane="c_e_2" arrivalPos="11.40" arrivalSpeed="11.05" duration="10.20" routeLength="57.21" waitingTime="0.00" waitingCount="0" stopTime="0.00" timeLoss="5.09" rerouteNo="0" devices="tripinfo_39" vType="DEFAULT_VEHTYPE" speedFactor="0.93" vaporized=""/>
    <tripinfo id="33" depart="33.00" departLane="c_s_0" departPos="5.10" departSpeed="0.00" departDelay="0.00" arrival="53.00" arrivalLane="-w_c_2" arrivalPos="11.40" arrivalSpeed="10.47" duration="20.00" routeLength="67.21" waitingTime="5.90" waitingCount="2" stopTime="0.00" timeLoss="13.37" rerouteNo="0" devices="tripinfo_33" vType="DEFAULT_VEHTYPE" speedFactor="0.83" vaporized=""/>
    <tripinfo id="44" depart="44.00" departLane="w_c_0" departPos="5.10" departSpeed="0.00" departDelay="0.00" arrival="54.20" arrivalLane="c_e_0" arrivalPos="11.40" arrivalSpeed="12.58" duration="10.20" routeLength="44.90" waitingTime="1.30" waitingCount="1" stopTime="0.00" timeLoss="6.97" rerouteNo="0" devices="tripinfo_44" vType="DEFAULT_VEHTYPE" speedFactor="1.01" vaporized=""/>
    <tripinfo id="46" depart="49.20" departLane="w_c_0" departPos="5.10" departSpeed="0.00" departDelay="3.20" arrival="55.80" arrivalLane="c_e_0" arrivalPos="11.40" arrivalSpeed="13.52" duration="6.60" routeLength="44.90" waitingTime="0.00" waitingCount="0" stopTime="0.00" timeLoss="3.82" rerouteNo="0" devices="tripinfo_46" vType="DEFAULT_VEHTYPE" speedFactor="1.17" vaporized=""/>
    <tripinfo id="49" depart="49.00" departLane="-c_e_0" departPos="5.10" departSpeed="0.00" departDelay="0.00" arrival="61.50" arrivalLane="-c_s_2" arrivalPos="36.40" arrivalSpeed="13.70" duration="12.50" routeLength="67.21" waitingTime="0.90" waitingCount="1" stopTime="0.00" timeLoss="7.00" rerouteNo="0" devices="tripinfo_49" vType="DEFAULT_VEHTYPE" speedFactor="0.99" vaporized=""/>
</tripinfos>
